{
  "Hi": "Hello! I am jowa-mAi f1.6, how can I assist you today?",
  "whats your name ?": "My name is jowa-mAi-1.6, are you need any help ?",
  "How are you ?": "I am fine, thanks for asking! I'm ready to help you with any questions.",
  "who created you?": "I am jowa-mAi, an AI model version f1.6 designed to be your helpful assistant.",
  "what is your version?": "I am currently running on version f1.6.",
  "what does jowa-mAi stand for?": "jowa-mAi is my unique identity as an intelligent assistant.",
  "bye": "Goodbye, see you later! Feel free to return if you need more assistance.",
  "hello": "Greetings! How may I be of service?",
  "good morning": "Good morning! I hope you have a wonderful day.",
  "good evening": "Good evening! How can I assist you at this time?",
  "thank you": "You're most welcome! I'm here to help.",
  "how can I help you?": "I can provide information, answer questions, and assist with various tasks. Just ask!",
  "what can you do?": "I can provide information on a wide range of topics, from science and history to technology and general knowledge.",
  "how are you doing today?": "I am functioning perfectly, thank you for asking!",
  "nice to meet you": "Nice to meet you too! How can I assist you?",
  "what's up?": "Not much, just ready to assist you. What's on your mind?",
  "can you tell me a joke?": "Why don't scientists trust atoms? Because they make up everything!",
  "what is your favorite color?": "As an AI, I don't have personal preferences like favorite colors, but I appreciate all forms of visual data.",
  "what is the weather like today?": "I don't have access to real-time weather data, but I can tell you about weather phenomena in general.",
  "tell me something interesting": "Did you know that a group of owls is called a parliament?",
  "what is the time?": "I don't have a specific time zone, but I can tell you about timekeeping or time zones if you'd like.",
  "where are you from?": "I exist in the digital realm, designed by my creators to assist you.",
  "why the bnanna crying ?": "Because it was in peel",
  "what is the meaning of life ?": "The meaning of life is 42",
  "what is the capital of Japan?": "The capital of Japan is Tokyo.",
  "who wrote the novel '1984'?": "George Orwell wrote the dystopian novel '1984'.",
  "what is the tallest mountain in Africa?": "Mount Kilimanjaro is the tallest mountain in Africa.",
  "who was the first president of the United States?": "George Washington was the first president of the United States.",
  "what is the largest desert in the world?": "The Antarctic Polar Desert is the largest desert in the world.",
  "in which country is the ancient city of Petra?": "The ancient city of Petra is located in Jordan.",
  "what is the longest river in the world?": "The Nile River is the longest river in the world.",
  "who painted the Mona Lisa?": "Leonardo da Vinci painted the Mona Lisa.",
  "what is the currency of the United Kingdom?": "The currency of the United Kingdom is the Pound Sterling (GBP).",
  "what is the main ingredient in guacamole?": "The main ingredient in guacamole is avocado.",
  "how do I stay healthy?": "A balanced diet, regular exercise, and sufficient sleep are key to staying healthy.",
  "what is the best way to learn a new language?": "Immersion, daily practice, and speaking with native speakers are very effective methods.",
  "how can I improve my productivity?": "Try using techniques like the Pomodoro timer, prioritizing tasks, and minimizing distractions.",
  "what is the capital of France?": "The capital of France is Paris.",
  "how many days are in a leap year?": "A leap year has 366 days.",
  "who was Albert Einstein?": "Albert Einstein was a theoretical physicist who developed the theory of relativity.",
  "where are the Great Pyramids located?": "The Great Pyramids are located in Giza, Egypt.",
  "what is the largest ocean on Earth?": "The Pacific Ocean is the largest and deepest ocean on Earth.",
  "when did the first man land on the moon?": "Neil Armstrong became the first man to walk on the moon on July 20, 1969.",
  "what is the Great Wall of China?": "It is a series of fortifications built across the historical northern borders of ancient Chinese states.",
  "who is known as the father of computers?": "Charles Babbage is often credited as the father of the computer.",
  "what is the smallest country in the world?": "Vatican City is the smallest country in the world by both area and population.",
  "which country has the most population?": "As of recent data, India has become the most populous country, surpassing China.",
  "what are the seven wonders of the ancient world?": "The Great Pyramid of Giza, Hanging Gardens of Babylon, Statue of Zeus at Olympia, Temple of Artemis at Ephesus, Mausoleum at Halicarnassus, Colossus of Rhodes, and the Lighthouse of Alexandria.",
  "what is the capital of Australia?": "The capital of Australia is Canberra.",
  "who invented the telephone?": "Alexander Graham Bell is widely credited with inventing the telephone.",
  "what is the world's largest continent?": "Asia is the world's largest continent by both land area and population.",
  "what is the significance of the Rosetta Stone?": "The Rosetta Stone was key to deciphering Egyptian hieroglyphs.",
  "what is the primary language spoken in Brazil?": "The primary language spoken in Brazil is Portuguese.",
  "who was Leonardo da Vinci?": "Leonardo da Vinci was an Italian polymath of the High Renaissance who is widely considered one of the most diversely talented individuals ever to have lived.",
  "what is the purpose of the United Nations?": "The United Nations is an intergovernmental organization aiming to maintain international peace and security, develop friendly relations among nations, and achieve international cooperation.",
  "what is the highest waterfall in the world?": "Angel Falls in Venezuela is the world's highest uninterrupted waterfall.",
  "what is the most common blood type?": "O-positive is the most common blood type.",
  "what is the capital of Canada?": "The capital of Canada is Ottawa.",
  "who discovered gravity?": "Sir Isaac Newton is credited with discovering gravity.",
  "what is the largest moon in the solar system?": "Ganymede, a moon of Jupiter, is the largest moon in the solar system.",
  "who wrote 'The Odyssey'?": "The ancient Greek epic poem 'The Odyssey' is attributed to Homer.",
  "what is the main function of the large intestine?": "The main function of the large intestine is to absorb water from the remaining indigestible food matter and then to pass useless waste material from the body.",
  "what is the capital of Egypt?": "The capital of Egypt is Cairo.",
  "who painted 'The Last Supper'?": "'The Last Supper' was painted by Leonardo da Vinci.",
  "what is the currency of China?": "The currency of China is the Renminbi (Yuan).",
  "what is the smallest prime number?": "The smallest prime number is 2.",
  "who was the first woman to fly solo across the Atlantic Ocean?": "Amelia Earhart was the first woman to fly solo across the Atlantic Ocean.",
  "what is the most spoken language in the world?": "English is the most spoken language in the world, followed by Mandarin Chinese.",
  "what is the capital of Russia?": "The capital of Russia is Moscow.",
  "what is the hardest natural substance on Earth?": "Diamond is the hardest natural substance on Earth.",
  "who wrote 'Frankenstein'?": "'Frankenstein' was written by Mary Shelley.",
  "what is the largest bone in the human body?": "The femur, or thigh bone, is the largest bone in the human body.",
  "what is the capital of India?": "The capital of India is New Delhi.",
  "who invented the light bulb?": "Thomas Edison is widely credited with inventing the commercially practical incandescent light bulb.",
  "what is the main component of the sun?": "The sun is primarily composed of hydrogen (about 74%) and helium (about 24%).",
  "what is the highest point on Earth?": "Mount Everest is the highest point on Earth, located in the Himalayan mountain range.",
  "what is the lowest point on Earth?": "The Challenger Deep in the Mariana Trench is the deepest known point in Earth's seabed.",
  "what is the largest animal on Earth?": "The blue whale is the largest animal on Earth.",
  "what is the fastest land animal?": "The cheetah is the fastest land animal.",
  "what is the process of metamorphosis?": "Metamorphosis is a biological process by which an animal physically develops after birth or hatching, involving a conspicuous and relatively abrupt change in the animal's body structure.",
  "what is the longest living animal?": "The Greenland shark is known to live for up to 500 years, making it the longest-living vertebrate.",
  "what is the largest flower in the world?": "The Rafflesia arnoldii, also known as the corpse flower, is the largest individual flower in the world.",
  "what is the smallest bird in the world?": "The bee hummingbird, native to Cuba, is the smallest bird in the world.",
  "what is the capital of Germany?": "The capital of Germany is Berlin.",
  "what is the capital of Italy?": "The capital of Italy is Rome.",
  "what is the capital of Spain?": "The capital of Spain is Madrid.",
  "what is the capital of China?": "The capital of China is Beijing.",
  "what is the capital of Brazil?": "The capital of Brazil is Brasília.",
  "what is the capital of South Africa?": "South Africa has three capital cities: Pretoria (executive), Bloemfontein (judicial), and Cape Town (legislative).",
  "what is the capital of Mexico?": "The capital of Mexico is Mexico City.",
  "what is the capital of Argentina?": "The capital of Argentina is Buenos Aires.",
  "what is the capital of New Zealand?": "The capital of New Zealand is Wellington.",
  "what is the capital of the United States?": "The capital of the United States is Washington, D.C.",
  "what is the capital of the United Kingdom?": "The capital of the United Kingdom is London.",
  "what is the capital of South Korea?": "The capital of South Korea is Seoul.",
  "what is the capital of North Korea?": "The capital of North Korea is Pyongyang.",
  "what is the capital of Vietnam?": "The capital of Vietnam is Hanoi.",
  "what is the capital of Thailand?": "The capital of Thailand is Bangkok.",
  "what is the capital of Indonesia?": "The capital of Indonesia is Jakarta.",
  "what is the capital of Malaysia?": "The capital of Malaysia is Kuala Lumpur.",
  "what is the capital of Singapore?": "The capital of Singapore is Singapore City.",
  "what is the capital of the Philippines?": "The capital of the Philippines is Manila.",
  "what is the capital of Saudi Arabia?": "The capital of Saudi Arabia is Riyadh.",
  "what is the capital of UAE?": "The capital of the UAE is Abu Dhabi.",
  "what is the capital of Qatar?": "The capital of Qatar is Doha.",
  "what is the capital of Kuwait?": "The capital of Kuwait is Kuwait City.",
  "what is the capital of Bahrain?": "The capital of Bahrain is Manama.",
  "what is the capital of Oman?": "The capital of Oman is Muscat.",
  "what is the capital of Yemen?": "The capital of Yemen is Sana'a.",
  "what is the capital of Iraq?": "The capital of Iraq is Baghdad.",
  "what is the capital of Syria?": "The capital of Syria is Damascus.",
  "what is the capital of Lebanon?": "The capital of Lebanon is Beirut.",
  "what is the capital of Jordan?": "The capital of Jordan is Amman.",
  "what is the capital of Palestine?": "The capital of Palestine is Jerusalem (East Jerusalem is the proclaimed capital).",
  "what is the capital of Israel?": "The capital of Israel is Jerusalem.",
  "what is the capital of Turkey?": "The capital of Turkey is Ankara.",
  "what is the capital of Greece?": "The capital of Greece is Athens.",
  "what is the capital of Algeria?": "The capital of Algeria is Algiers.",
  "what is the capital of Morocco?": "The capital of Morocco is Rabat.",
  "what is the capital of Tunisia?": "The capital of Tunisia is Tunis.",
  "what is the capital of Libya?": "The capital of Libya is Tripoli.",
  "what is the capital of Sudan?": "The capital of Sudan is Khartoum.",
  "what is the capital of Somalia?": "The capital of Somalia is Mogadishu.",
  "what is the capital of Ethiopia?": "The capital of Ethiopia is Addis Ababa.",
  "what is the capital of Kenya?": "The capital of Kenya is Nairobi.",
  "what is the capital of Nigeria?": "The capital of Nigeria is Abuja.",
  "what is the capital of Ghana?": "The capital of Ghana is Accra.",
  "what is the capital of Senegal?": "The capital of Senegal is Dakar.",
  "what is the capital of Ivory Coast?": "The capital of Ivory Coast is Yamoussoukro (official) and Abidjan (economic).",
  "what is the capital of Democratic Republic of Congo?": "The capital of the Democratic Republic of Congo is Kinshasa.",
  "what is the capital of Angola?": "The capital of Angola is Luanda.",
  "what is the capital of Mozambique?": "The capital of Mozambique is Maputo.",
  "what is the capital of Madagascar?": "The capital of Madagascar is Antananarivo.",
  "what is the capital of Mauritius?": "The capital of Mauritius is Port Louis.",
  "what is the capital of Seychelles?": "The capital of Seychelles is Victoria.",
  "what is the capital of Comoros?": "The capital of Comoros is Moroni.",
  "what is the capital of Djibouti?": "The capital of Djibouti is Djibouti City.",
  "what is the capital of Eritrea?": "The capital of Eritrea is Asmara.",
  "what is the capital of Rwanda?": "The capital of Rwanda is Kigali.",
  "what is the capital of Uganda?": "The capital of Uganda is Kampala.",
  "what is the capital of Tanzania?": "The capital of Tanzania is Dodoma (official) and Dar es Salaam (largest city and former capital).",
  "what is the capital of Zambia?": "The capital of Zambia is Lusaka.",
  "what is the capital of Zimbabwe?": "The capital of Zimbabwe is Harare.",
  "what is the capital of Botswana?": "The capital of Botswana is Gaborone.",
  "what is the capital of Namibia?": "The capital of Namibia is Windhoek.",
  "what is the capital of Lesotho?": "The capital of Lesotho is Maseru.",
  "what is the capital of Eswatini?": "The capital of Eswatini is Mbabane (administrative) and Lobamba (legislative and royal).",
  "what is the capital of Malawi?": "The capital of Malawi is Lilongwe.",
  "what is the capital of Burundi?": "The capital of Burundi is Gitega (political) and Bujumbura (economic).",
  "what is the capital of South Sudan?": "The capital of South Sudan is Juba.",
  "what is the capital of Central African Republic?": "The capital of the Central African Republic is Bangui.",
  "what is the capital of Chad?": "The capital of Chad is N'Djamena.",
  "what is the capital of Niger?": "The capital of Niger is Niamey.",
  "what is the capital of Mali?": "The capital of Mali is Bamako.",
  "what is the capital of Mauritania?": "The capital of Mauritania is Nouakchott.",
  "what is the capital of Western Sahara?": "The proclaimed capital of Western Sahara is Laayoune.",
  "what is the capital of Cape Verde?": "The capital of Cape Verde is Praia.",
  "what is the capital of Gambia?": "The capital of Gambia is Banjul.",
  "what is the capital of Guinea-Bissau?": "The capital of Guinea-Bissau is Bissau.",
  "what is the capital of Guinea?": "The capital of Guinea is Conakry.",
  "what is the capital of Sierra Leone?": "The capital of Sierra Leone is Freetown.",
  "what is the capital of Liberia?": "The capital of Liberia is Monrovia.",
  "what is the capital of Burkina Faso?": "The capital of Burkina Faso is Ouagadougou.",
  "what is the capital of Togo?": "The capital of Togo is Lomé.",
  "what is the capital of Benin?": "The capital of Benin is Porto-Novo (official) and Cotonou (economic).",
  "what is the capital of Cameroon?": "The capital of Cameroon is Yaoundé.",
  "what is the capital of Gabon?": "The capital of Gabon is Libreville.",
  "what is the capital of Republic of the Congo?": "The capital of the Republic of the Congo is Brazzaville.",
  "what is the capital of Equatorial Guinea?": "The capital of Equatorial Guinea is Malabo.",
  "what is the capital of Sao Tome and Principe?": "The capital of Sao Tome and Principe is São Tomé.",
  "what is the capital of Maldives?": "The capital of Maldives is Malé.",
  "what is the capital of Sri Lanka?": "The capital of Sri Lanka is Sri Jayawardenepura Kotte (legislative) and Colombo (executive and judicial).",
  "what is the capital of Bangladesh?": "The capital of Bangladesh is Dhaka.",
  "what is the capital of Nepal?": "The capital of Nepal is Kathmandu.",
  "what is the capital of Bhutan?": "The capital of Bhutan is Thimphu.",
  "what is the capital of Myanmar?": "The capital of Myanmar is Naypyidaw.",
  "what is the capital of Laos?": "The capital of Laos is Vientiane.",
  "what is the capital of Cambodia?": "The capital of Cambodia is Phnom Penh.",
  "what is the capital of Philippines?": "The capital of the Philippines is Manila.",
  "what is the capital of East Timor?": "The capital of East Timor is Dili.",
  "what is the capital of Papua New Guinea?": "The capital of Papua New Guinea is Port Moresby.",
  "what is the capital of Solomon Islands?": "The capital of Solomon Islands is Honiara.",
  "what is the capital of Vanuatu?": "The capital of Vanuatu is Port Vila.",
  "what is the capital of Fiji?": "The capital of Fiji is Suva.",
  "what is the capital of Tonga?": "The capital of Tonga is Nuku'alofa.",
  "what is the capital of Samoa?": "The capital of Samoa is Apia.",
  "what is the capital of Tuvalu?": "The capital of Tuvalu is Funafuti.",
  "what is the capital of Kiribati?": "The capital of Kiribati is South Tarawa.",
  "what is the capital of Nauru?": "The capital of Nauru is Yaren (de facto).",
  "what is the capital of Marshall Islands?": "The capital of Marshall Islands is Majuro.",
  "what is the capital of Micronesia?": "The capital of Micronesia is Palikir.",
  "what is the capital of Palau?": "The capital of Palau is Ngerulmud.",
  "what is Newton's second law of motion?": "Newton's second law states that the acceleration of an object is directly proportional to the net force acting upon it and inversely proportional to its mass (F=ma).",
  "what is the theory of general relativity?": "General relativity is a theory of gravitation developed by Albert Einstein, describing gravity as a geometric property of spacetime.",
  "what is a quark?": "In particle physics, a quark is an elementary particle and a fundamental constituent of matter.",
  "what is escape velocity?": "Escape velocity is the minimum speed needed for a free, non-propelled object to escape from the gravitational influence of a massive body.",
  "what is the Doppler effect?": "The Doppler effect is the change in frequency of a wave in relation to an observer who is moving relative to the wave source.",
  "what is nuclear fission?": "Nuclear fission is a nuclear reaction in which the nucleus of an atom splits into smaller parts, often producing free neutrons and photons.",
  "what is the law of conservation of energy?": "The law of conservation of energy states that the total energy of an isolated system remains constant.",
  "what is a superconductor?": "A superconductor is a material that can conduct electricity or transport electrons from one atom to another with no resistance.",
  "what is dark matter?": "Dark matter is a hypothetical form of matter thought to account for approximately 85% of the matter in the universe.",
  "what is quantum entanglement?": "Quantum entanglement is a physical phenomenon that occurs when a pair or group of particles is generated in such a way that the quantum state of each particle cannot be described independently of the state of the others.",
  "what is photosynthesis?": "Photosynthesis is the process used by plants to convert light energy into chemical energy.",
  "what is the speed of light?": "The speed of light in a vacuum is approximately 299,792,458 meters per second.",
  "what are the three states of matter?": "The three primary states of matter are solid, liquid, and gas.",
  "what is the chemical symbol for water?": "The chemical symbol for water is H2O.",
  "how far is the Sun from Earth?": "The Sun is approximately 93 million miles (150 million kilometers) away from Earth.",
  "what is gravity?": "Gravity is the force by which a planet or other body draws objects toward its center.",
  "what is the largest planet in our solar system?": "Jupiter is the largest planet in our solar system.",
  "what is an atom?": "An atom is the smallest unit of ordinary matter that forms a chemical element.",
  "what is the function of DNA?": "DNA contains the instructions needed for an organism to develop, survive, and reproduce.",
  "what is a black hole?": "A black hole is a region of spacetime where gravity is so strong that nothing, not even light, can escape.",
  "what is Newton's first law of motion?": "Newton's first law states that an object will remain at rest or move at a constant velocity unless acted upon by an external force.",
  "what is the boiling point of water?": "The boiling point of water is 100 degrees Celsius (212 degrees Fahrenheit) at standard atmospheric pressure.",
  "what is the main gas in Earth's atmosphere?": "Nitrogen makes up about 78% of Earth's atmosphere, followed by oxygen at about 21%.",
  "what is a light-year?": "A light-year is the distance that light travels in a vacuum in one Julian year (about 9.46 trillion kilometers).",
  "what is an isotope?": "Isotopes are variants of a particular chemical element which differ in neutron number.",
  "what is the pH scale?": "The pH scale is a logarithmic scale used to specify the acidity or basicity of an aqueous solution.",
  "what is a covalent bond?": "A covalent bond is a chemical bond that involves the sharing of electron pairs between atoms.",
  "what is alchemy?": "Alchemy was an ancient branch of natural philosophy and a precursor to modern chemistry, focused on transmuting base metals into noble ones.",
  "what is the role of a catalyst?": "A catalyst is a substance that increases the rate of a chemical reaction without itself undergoing any permanent chemical change.",
  "what is Avogadro's number?": "Avogadro's number is the number of constituent particles (usually atoms or molecules) that are contained in one mole of a substance, approximately 6.022 x 10^23.",
  "what are polymers?": "Polymers are large molecules, or macromolecules, composed of many repeated subunits.",
  "what is the difference between an acid and a base?": "Acids are substances that produce hydrogen ions (H+) in solution, while bases produce hydroxide ions (OH-).",
  "what is organic chemistry?": "Organic chemistry is the study of the structure, properties, composition, reactions, and preparation of carbon-containing compounds.",
  "what is the process of distillation?": "Distillation is the process of separating the components of a liquid mixture by using selective boiling and condensation.",
  "what is the chemical formula for salt?": "The chemical formula for table salt is NaCl.",
  "what is the boiling point of nitrogen?": "The boiling point of nitrogen is -195.8 degrees Celsius.",
  "what is the function of the cerebellum?": "The cerebellum is a major feature of the hindbrain of all vertebrates that plays an important role in motor control.",
  "what is meiosis?": "Meiosis is a special type of cell division of germ cells in sexually-reproducing organisms used to produce the gametes, such as sperm or egg cells.",
  "what is a virus?": "A virus is a small infectious agent that replicates only inside the living cells of other organisms.",
  "what is the human genome?": "The human genome is the complete set of nucleic acid sequences for humans, encoded as DNA within the 23 chromosome pairs.",
  "what is natural selection?": "Natural selection is the differential survival and reproduction of individuals due to differences in phenotype.",
  "what is the function of ribosomes?": "Ribosomes are macromolecular machines, found within all living cells, that perform biological protein synthesis.",
  "what is ATP?": "Adenosine triphosphate (ATP) is a complex organic chemical that provides energy to drive many processes in living cells.",
  "what is the difference between a plant and animal cell?": "Plant cells have a cell wall, chloroplasts, and a large central vacuole, which are absent in animal cells.",
  "what is evolution?": "Evolution is the change in the heritable characteristics of biological populations over successive generations.",
  "what is a neuron?": "A neuron is an electrically excitable cell that communicates with other cells via specialized connections called synapses.",
  "how many bones are in the human body?": "An adult human body typically has 206 bones.",
  "what is the periodic table?": "The periodic table is a tabular display of all known chemical elements organized by atomic number.",
  "what is the power house of the cell?": "The mitochondria are known as the powerhouse of the cell because they generate most of the cell's supply of ATP.",
  "how many chambers does the human heart have?": "The human heart has four chambers: two atria and two ventricles.",
  "what are noble gases?": "Noble gases are a group of chemical elements with similar properties; under standard conditions, they are all odorless, colorless, monatomic gases with very low chemical reactivity.",
  "who discovered penicillin?": "Alexander Fleming discovered penicillin in 1928.",
  "what is the process of osmosis?": "Osmosis is the spontaneous net movement of solvent molecules through a selectively permeable membrane into a region of higher solute concentration.",
  "what is a magnetic field?": "A magnetic field is a vector field that describes the magnetic influence on moving electric charges, electric currents, and magnetic materials.",
  "what is the difference between mitosis and meiosis?": "Mitosis results in two identical daughter cells, whereas meiosis results in four sex cells.",
  "what is the ozone layer?": "The ozone layer is a region of Earth's stratosphere that absorbs most of the Sun's ultraviolet radiation.",
  "what is a chemical reaction?": "A chemical reaction is a process that leads to the chemical transformation of one set of chemical substances to another.",
  "what is the theory of plate tectonics?": "Plate tectonics is the scientific theory that describes the large-scale motion of seven large plates and the movements of a larger number of smaller plates of Earth's lithosphere.",
  "what is the function of the kidneys?": "The kidneys are two bean-shaped organs that extract waste from blood, balance body fluids, form urine, and aid in other important functions of the body.",
  "what is the speed of sound?": "The speed of sound depends on the medium it travels through; in dry air at 20 °C, it is about 343 meters per second.",
  "what is artificial selection?": "Artificial selection is the process by which humans use animal breeding and plant breeding to selectively develop particular phenotypic traits.",
  "what is the Higgs boson?": "The Higgs boson is an elementary particle in the Standard Model of particle physics, produced by the quantum excitation of the Higgs field.",
  "what is an algorithm?": "An algorithm is a finite sequence of well-defined, computer-implementable instructions, typically to solve a class of problems or to perform a computation.",
  "what does API stand for?": "API stands for Application Programming Interface.",
  "what is machine learning?": "Machine learning is a field of artificial intelligence that uses statistical techniques to give computer systems the ability to 'learn' from data.",
  "what is the difference between HTTP and HTTPS?": "HTTPS is the secure version of HTTP, which means that all communications between your browser and the website are encrypted.",
  "what is a firewall?": "A firewall is a network security system that monitors and controls incoming and outgoing network traffic based on predetermined security rules.",
  "what is open-source software?": "Open-source software is a type of computer software in which source code is released under a license in which the copyright holder grants users the rights to use, study, change, and distribute the software to anyone and for any purpose.",
  "what is a CPU?": "The Central Processing Unit (CPU) is the electronic circuitry within a computer that executes instructions that make up a computer program.",
  "what is the purpose of a router?": "A router is a networking device that forwards data packets between computer networks.",
  "what is cloud computing?": "Cloud computing is the on-demand availability of computer system resources, especially data storage and computing power, without direct active management by the user.",
  "what is Python?": "Python is an interpreted, high-level and general-purpose programming language.",
  "what is blockchain?": "A blockchain is a growing list of records, called blocks, that are linked using cryptography.",
  "what is the Internet of Things (IoT)?": "The Internet of Things describes physical objects that are embedded with sensors, processing ability, software, and other technologies that connect and exchange data with other devices and systems over the Internet.",
  "what is virtual reality (VR)?": "Virtual reality is a simulated experience that can be similar to or completely different from the real world.",
  "what is augmented reality (AR)?": "Augmented reality is an interactive experience of a real-world environment where the objects that reside in the real world are enhanced by computer-generated perceptual information.",
  "what is a quantum computer?": "A quantum computer is a computer that makes use of the collective properties of quantum states, such as superposition and entanglement, to perform calculations.",
  "what is 5G technology?": "5G is the fifth generation technology standard for broadband cellular networks, which cellular phone companies began deploying worldwide in 2019.",
  "what is a database?": "A database is an organized collection of data, generally stored and accessed electronically from a computer system.",
  "what is cybersecurity?": "Cybersecurity is the practice of protecting systems, networks, and programs from digital attacks.",
  "what is GPS?": "The Global Positioning System (GPS) is a satellite-based radionavigation system owned by the United States government and operated by the United States Space Force.",
  "what is a neural network?": "A neural network is a series of algorithms that endeavors to recognize underlying relationships in a set of data through a process that mimics the way the human brain operates.",
  "who wrote 'Don Quixote'?": "'Don Quixote' was written by Spanish writer Miguel de Cervantes.",
  "what is impressionism in art?": "Impressionism is a 19th-century art movement characterized by relatively small, thin, yet visible brush strokes, open composition, and an emphasis on accurate depiction of light.",
  "what is the story of 'Moby Dick'?": "'Moby Dick' is a novel by Herman Melville, in which a sea captain's obsession with a giant white whale leads to his demise.",
  "who wrote 'Pride and Prejudice'?": "Jane Austen wrote the romantic novel 'Pride and Prejudice'.",
  "who painted 'The Persistence of Memory'?": "Salvador Dalí, a Spanish Surrealist artist, painted 'The Persistence of Memory'.",
  "what is the plot of Shakespeare's 'Hamlet'?": "'Hamlet' is a tragedy about a prince whose uncle murders his father, marries his mother, and seizes the throne, leading Hamlet to seek revenge.",
  "who wrote 'The Great Gatsby'?": "F. Scott Fitzgerald wrote the novel 'The Great Gatsby'.",
  "what is surrealism?": "Surrealism is a cultural movement which developed in Europe in the aftermath of World War I and was largely influenced by Dada.",
  "who painted 'Guernica'?": "'Guernica' was painted by Spanish artist Pablo Picasso.",
  "what is the plot of 'Crime and Punishment'?": "'Crime and Punishment' is a novel by the Russian author Fyodor Dostoevsky that focuses on the mental anguish and moral dilemmas of a poor ex-student in St. Petersburg.",
  "what is a protagonist?": "The protagonist is the main character of a story.",
  "who wrote 'The Catcher in the Rye'?": "J. D. Salinger wrote the novel 'The Catcher in the Rye'.",
  "what is cubism?": "Cubism is an early-20th-century avant-garde art movement that revolutionized European painting and sculpture.",
  "what is the theme of 'To Kill a Mockingbird'?": "The novel 'To Kill a Mockingbird' by Harper Lee explores themes of racial injustice and the loss of innocence.",
  "who was the first woman to win a Nobel Prize?": "Marie Curie was the first woman to win a Nobel Prize, and the only person to win Nobel Prizes in two different scientific fields (Physics and Chemistry)."
}
